
FAST Summary File

Predictions were generated on 20-Mar-2023 at 18:23:26 using FAST (v8.16.00a-bjj, 27-Jul-2016), compiled as a 32-bit application using single precision
  compiled with
    NWTC Subroutine Library (v2.09.00, 23-Jul-2016)
    ElastoDyn (v1.04.00a-bjj, 26-Jul-2016)
    BeamDyn (unknown version, unknown date) [not called]
    InflowWind (v3.03.00, 26-Jul-2016)
    AeroDyn14 (unknown version, unknown date) [not called]
    AeroDyn (v15.03.00, 27-Jul-2016)
    ServoDyn (v1.06.00a-bjj, 26-Jul-2016)
    HydroDyn (v2.05.01, 27-Jul-2016)
    SubDyn (unknown version, unknown date) [not called]
    MAP (unknown version, unknown date) [not called]
    FEAMooring (v1.02.01, 23-Jul-2016)
    MoorDyn (unknown version, unknown date) [not called]
    OrcaFlexInterface (unknown version, unknown date) [not called]
    IceFloe (unknown version, unknown date) [not called]
    IceDyn (unknown version, unknown date) [not called]


Modeling a floating offshore turbine
Description from the FAST input file: 
  FAST Certification Test #23: NREL 5.0 MW Baseline Wind Turbine with MIT-NREL TLP Configuration, for use in offshore analysis

Interpolation order for input/output time histories: 2 (quadratic)
Number of correction iterations:  0
Number of rows in Jacobian matrix used for coupling ElastoDyn to HydroDyn:     12


   Requested Time Steps  
  -------------------------------------------------
  Component          Time Step (s)    Subcycles (-)
  -----------------  ---------------  -------------
  FAST (glue code)    1.250E-02
  InflowWind          1.250E-02              1
  ElastoDyn           1.250E-02              1
  AeroDyn             1.250E-02              1
  ServoDyn            1.250E-02              1
  HydroDyn            1.250E-02              1
  FEAMooring          1.250E-02              1
  FAST output files   1.250E-02              1


   Requested Channels in FAST Output File(s)  
  --------------------------------------------
  Number  Name        Units       Generated by
  ------  ----------  ----------  ------------
       1  Time        (s)         FAST
       2  Wind1VelX   (m/s)       InflowWind
       3  Wind1VelY   (m/s)       InflowWind
       4  Wind1VelZ   (m/s)       InflowWind
       5  BldPitch1   (deg)       ElastoDyn
       6  RotSpeed    (rpm)       ElastoDyn
       7  PtfmSurge   (m)         ElastoDyn
       8  PtfmSway    (m)         ElastoDyn
       9  PtfmHeave   (m)         ElastoDyn
      10  YawBrFxp    (kN)        ElastoDyn
      11  YawBrFyp    (kN)        ElastoDyn
      12  YawBrFzp    (kN)        ElastoDyn
      13  TwrBsMxt    (kN·m)      ElastoDyn
      14  TwrBsMyt    (kN·m)      ElastoDyn
      15  RootMxb1    (kN·m)      ElastoDyn
      16  RootMyb1    (kN·m)      ElastoDyn
      17  GenPwr      (kW)        ServoDyn
      18  GenTq       (kN·m)      ServoDyn
      19  Wave1Elev   (m)         HydroDyn
      20  FairT1      (kN)        FEAMooring
      21  AnchT1      (kN)        FEAMooring
      22  FairT2      (kN)        FEAMooring
      23  AnchT2      (kN)        FEAMooring
      24  FairT3      (kN)        FEAMooring
      25  AnchT3      (kN)        FEAMooring
      26  FairT4      (kN)        FEAMooring
      27  AnchT4      (kN)        FEAMooring
      28  FairT5      (kN)        FEAMooring
      29  AnchT5      (kN)        FEAMooring
      30  FairT6      (kN)        FEAMooring
      31  AnchT6      (kN)        FEAMooring
      32  FairT7      (kN)        FEAMooring
      33  AnchT7      (kN)        FEAMooring
      34  FairT8      (kN)        FEAMooring
      35  AnchT8      (kN)        FEAMooring
