
FAST Summary File

Predictions were generated on 16-Mar-2023 at 15:06:29 using FAST (v8.16.00a-bjj, 27-Jul-2016), compiled as a 32-bit application using single precision
  compiled with
    NWTC Subroutine Library (v2.09.00, 23-Jul-2016)
    ElastoDyn (v1.04.00a-bjj, 26-Jul-2016)
    BeamDyn (unknown version, unknown date) [not called]
    InflowWind (v3.03.00, 26-Jul-2016)
    AeroDyn14 (unknown version, unknown date) [not called]
    AeroDyn (v15.03.00, 27-Jul-2016)
    ServoDyn (v1.06.00a-bjj, 26-Jul-2016)
    HydroDyn (v2.05.01, 27-Jul-2016)
    SubDyn (v1.03.00, 11-Apr-2016)
    MAP (unknown version, unknown date) [not called]
    FEAMooring (unknown version, unknown date) [not called]
    MoorDyn (unknown version, unknown date) [not called]
    OrcaFlexInterface (unknown version, unknown date) [not called]
    IceFloe (unknown version, unknown date) [not called]
    IceDyn (unknown version, unknown date) [not called]


Modeling a fixed-bottom offshore turbine
Description from the FAST input file: 
  FAST Certification Test #19: NREL 5.0 MW Baseline Wind Turbine with OC3 Monopile RF Configuration, for use in offshore analysis

Interpolation order for input/output time histories: 2 (quadratic)
Number of correction iterations:  0
Number of rows in Jacobian matrix used for coupling ElastoDyn, SubDyn, HydroDyn, OrcaFlex, and/or BeamDyn:    498


   Requested Time Steps  
  -------------------------------------------------
  Component          Time Step (s)    Subcycles (-)
  -----------------  ---------------  -------------
  FAST (glue code)    5.000E-03
  InflowWind          5.000E-03              1
  ElastoDyn           5.000E-03              1
  AeroDyn             5.000E-03              1
  ServoDyn            5.000E-03              1
  HydroDyn            5.000E-03              1
  SubDyn              5.000E-03              1
  FAST output files   5.000E-02             10^-1


   Requested Channels in FAST Output File(s)  
  --------------------------------------------
  Number  Name        Units       Generated by
  ------  ----------  ----------  ------------
       1  Time        (s)         FAST
       2  Wind1VelX   (m/s)       InflowWind
       3  Wind1VelY   (m/s)       InflowWind
       4  Wind1VelZ   (m/s)       InflowWind
       5  OoPDefl1    (m)         ElastoDyn
       6  IPDefl1     (m)         ElastoDyn
       7  TwstDefl1   (deg)       ElastoDyn
       8  BldPitch1   (deg)       ElastoDyn
       9  Azimuth     (deg)       ElastoDyn
      10  RotSpeed    (rpm)       ElastoDyn
      11  GenSpeed    (rpm)       ElastoDyn
      12  TwHt1TPxi   (m)         ElastoDyn
      13  TwHt1TPyi   (m)         ElastoDyn
      14  TTDspTwst   (deg)       ElastoDyn
      15  PtfmSurge   (m)         ElastoDyn
      16  PtfmSway    (m)         ElastoDyn
      17  PtfmRoll    (deg)       ElastoDyn
      18  PtfmPitch   (deg)       ElastoDyn
      19  Spn2MLxb1   (kN·m)      ElastoDyn
      20  Spn2MLyb1   (kN·m)      ElastoDyn
      21  RootFxc1    (kN)        ElastoDyn
      22  RootFyc1    (kN)        ElastoDyn
      23  RootFzc1    (kN)        ElastoDyn
      24  RootMxc1    (kN·m)      ElastoDyn
      25  RootMyc1    (kN·m)      ElastoDyn
      26  RootMzc1    (kN·m)      ElastoDyn
      27  RotTorq     (kN·m)      ElastoDyn
      28  LSSGagMya   (kN·m)      ElastoDyn
      29  LSSGagMza   (kN·m)      ElastoDyn
      30  YawBrFxp    (kN)        ElastoDyn
      31  YawBrFyp    (kN)        ElastoDyn
      32  YawBrFzp    (kN)        ElastoDyn
      33  YawBrMxp    (kN·m)      ElastoDyn
      34  YawBrMyp    (kN·m)      ElastoDyn
      35  YawBrMzp    (kN·m)      ElastoDyn
      36  YawBrTDxp   (m)         ElastoDyn
      37  YawBrTDyp   (m)         ElastoDyn
      38  YawBrTDzp   (m)         ElastoDyn
      39  PtfmHeave   (m)         ElastoDyn
      40  RootMxb1    (kN·m)      ElastoDyn
      41  RootMyb1    (kN·m)      ElastoDyn
      42  TwrBsMxt    (kN·m)      ElastoDyn
      43  TwrBsMyt    (kN·m)      ElastoDyn
      44  RtAeroFxh   (N)         AeroDyn
      45  RtAeroFyh   (N)         AeroDyn
      46  RtAeroFzh   (N)         AeroDyn
      47  RtAeroMxh   (N·m)       AeroDyn
      48  RtAeroMyh   (N·m)       AeroDyn
      49  RtAeroMzh   (N·m)       AeroDyn
      50  GenPwr      (kW)        ServoDyn
      51  GenTq       (kN·m)      ServoDyn
      52  BlPitchC1   (deg)       ServoDyn
      53  Wave1Elev   (m)         HydroDyn
      54  M2N1MKxe    (N*m)       SubDyn
      55  M2N1MKye    (N*m)       SubDyn
      56  M1N1MKxe    (N*m)       SubDyn
      57  M1N1MKye    (N*m)       SubDyn
      58  -ReactFXss  (N)         SubDyn
      59  -ReactFYss  (N)         SubDyn
      60  -ReactFZss  (N)         SubDyn
      61  -ReactMXss  (Nm)        SubDyn
      62  -ReactMYss  (Nm)        SubDyn
      63  -ReactMZss  (Nm)        SubDyn
